[
  {
    "material_id": "mp-1078300",
    "formula": "ScF3",
    "band_gap": 6.105700000000001,
    "formation_energy_per_atom": -4.217866632500001,
    "structure": {
      "@module": "pymatgen.core.structure",
      "@class": "Structure",
      "charge": 0,
      "lattice": {
        "matrix": [
          [
            4.94336584,
            0.0075058,
            2.83857748
          ],
          [
            1.64682898,
            4.66099517,
            2.83857748
          ],
          [
            0.01059413,
            0.0075058,
            5.7003756800000005
          ]
        ],
        "pbc": [
          true,
          true,
          true
        ],
        "a": 5.700389835360008,
        "b": 5.700389791417278,
        "c": 5.70039046607858,
        "alpha": 60.02816349632822,
        "beta": 60.028172341578575,
        "gamma": 60.02816903871121,
        "volume": 131.06174327441715
      },
      "properties": {},
      "sites": [
        {
          "species": [
            {
              "element": "Sc",
              "occu": 1
            }
          ],
          "abc": [
            0.5,
            0.5,
            0.5
          ],
          "xyz": [
            3.3003944750000005,
            2.3380033849999995,
            5.68876532
          ],
          "properties": {
            "magmom": -0.0
          },
          "label": "Sc"
        },
        {
          "species": [
            {
              "element": "Sc",
              "occu": 1
            }
          ],
          "abc": [
            -0.0,
            -0.0,
            0.0
          ],
          "xyz": [
            0.0,
            0.0,
            0.0
          ],
          "properties": {
            "magmom": -0.0
          },
          "label": "Sc"
        },
        {
          "species": [
            {
              "element": "F",
              "occu": 1
            }
          ],
          "abc": [
            0.72658453,
            0.25,
            0.77341547
          ],
          "xyz": [
            4.011674054507647,
            1.1765074924999999,
            7.180869589898154
          ],
          "properties": {
            "magmom": 0.0
          },
          "label": "F"
        },
        {
          "species": [
            {
              "element": "F",
              "occu": 1
            }
          ],
          "abc": [
            0.25,
            0.77341547,
            0.72658453
          ],
          "xyz": [
            2.51722200054313,
            3.6122158182385533,
            7.046848890101846
          ],
          "properties": {
            "magmom": 0.0
          },
          "label": "F"
        },
        {
          "species": [
            {
              "element": "F",
              "occu": 1
            }
          ],
          "abc": [
            0.77341547,
            0.72658453,
            0.25
          ],
          "xyz": [
            5.022484607449225,
            3.394288536761446,
            5.6829601400000005
          ],
          "properties": {
            "magmom": 0.0
          },
          "label": "F"
        },
        {
          "species": [
            {
              "element": "F",
              "occu": 1
            }
          ],
          "abc": [
            0.27341547,
            0.75,
            0.22658453
          ],
          "xyz": [
            2.5891148954923535,
            3.4994992775,
            4.196661050101846
          ],
          "properties": {
            "magmom": 0.0
          },
          "label": "F"
        },
        {
          "species": [
            {
              "element": "F",
              "occu": 1
            }
          ],
          "abc": [
            0.75,
            0.22658453,
            0.27341547
          ],
          "xyz": [
            4.083566949456871,
            1.0637909517614461,
            4.3306817498981545
          ],
          "properties": {
            "magmom": 0.0
          },
          "label": "F"
        },
        {
          "species": [
            {
              "element": "F",
              "occu": 1
            }
          ],
          "abc": [
            0.22658453,
            0.27341547,
            0.75
          ],
          "xyz": [
            1.578304342550776,
            1.2817182332385537,
            5.6945705
          ],
          "properties": {
            "magmom": 0.0
          },
          "label": "F"
        }
      ]
    }
  },
  {
    "material_id": "mp-2416",
    "formula": "YF3",
    "band_gap": 7.545699999999999,
    "formation_energy_per_atom": -4.469034024375,
    "structure": {
      "@module": "pymatgen.core.structure",
      "@class": "Structure",
      "charge": 0,
      "lattice": {
        "matrix": [
          [
            4.35539975,
            0.0,
            0.0
          ],
          [
            0.0,
            6.38818413,
            0.0
          ],
          [
            0.0,
            0.0,
            6.85619609
          ]
        ],
        "pbc": [
          true,
          true,
          true
        ],
        "a": 4.35539975,
        "b": 6.38818413,
        "c": 6.85619609,
        "alpha": 90.0,
        "beta": 90.0,
        "gamma": 90.0,
        "volume": 190.7605990090638
      },
      "properties": {},
      "sites": [
        {
          "species": [
            {
              "element": "Y",
              "occu": 1
            }
          ],
          "abc": [
            0.93669724,
            0.63082763,
            0.75
          ],
          "xyz": [
            4.07969092492169,
            4.029843054731511,
            5.1421470675
          ],
          "properties": {
            "magmom": -0.0
          },
          "label": "Y"
        },
        {
          "species": [
            {
              "element": "Y",
              "occu": 1
            }
          ],
          "abc": [
            0.43669724,
            0.86917237,
            0.25
          ],
          "xyz": [
            1.90199104992169,
            5.552433140268488,
            1.7140490225
          ],
          "properties": {
            "magmom": -0.0
          },
          "label": "Y"
        },
        {
          "species": [
            {
              "element": "Y",
              "occu": 1
            }
          ],
          "abc": [
            0.56330276,
            0.13082763,
            0.75
          ],
          "xyz": [
            2.45340870007831,
            0.8357509897315119,
            5.1421470675
          ],
          "properties": {
            "magmom": -0.0
          },
          "label": "Y"
        },
        {
          "species": [
            {
              "element": "Y",
              "occu": 1
            }
          ],
          "abc": [
            0.06330276,
            0.36917237,
            0.25
          ],
          "xyz": [
            0.27570882507831,
            2.358341075268488,
            1.7140490225
          ],
          "properties": {
            "magmom": -0.0
          },
          "label": "Y"
        },
        {
          "species": [
            {
              "element": "F",
              "occu": 1
            }
          ],
          "abc": [
            0.38135667,
            0.16554485,
            0.43706078
          ],
          "xyz": [
            1.6609607451788326,
            1.0575309835732305,
            2.9965744109283503
          ],
          "properties": {
            "magmom": 0.0
          },
          "label": "F"
        },
        {
          "species": [
            {
              "element": "F",
              "occu": 1
            }
          ],
          "abc": [
            0.8813566700000001,
            0.33445515000000003,
            0.56293922
          ],
          "xyz": [
            3.8386606201788327,
            2.1365610814267697,
            3.8596216790716498
          ],
          "properties": {
            "magmom": 0.0
          },
          "label": "F"
        },
        {
          "species": [
            {
              "element": "F",
              "occu": 1
            }
          ],
          "abc": [
            0.11864333,
            0.66554485,
            0.06293922
          ],
          "xyz": [
            0.5167391298211675,
            4.25162304857323,
            0.43152363407164984
          ],
          "properties": {
            "magmom": 0.0
          },
          "label": "F"
        },
        {
          "species": [
            {
              "element": "F",
              "occu": 1
            }
          ],
          "abc": [
            0.61864333,
            0.83445515,
            0.93706078
          ],
          "xyz": [
            2.694439004821168,
            5.33065314642677,
            6.42467245592835
          ],
          "properties": {
            "magmom": 0.0
          },
          "label": "F"
        },
        {
          "species": [
            {
              "element": "F",
              "occu": 1
            }
          ],
          "abc": [
            0.58597858,
            0.5218338100000001,
            0.25
          ],
          "xyz": [
            2.5521709608373553,
            3.3335704635394356,
            1.7140490225
          ],
          "properties": {
            "magmom": -0.0
          },
          "label": "F"
        },
        {
          "species": [
            {
              "element": "F",
              "occu": 1
            }
          ],
          "abc": [
            0.08597858,
            0.97816619,
            0.75
          ],
          "xyz": [
            0.374471085837355,
            6.248705731460565,
            5.1421470675
          ],
          "properties": {
            "magmom": -0.0
          },
          "label": "F"
        },
        {
          "species": [
            {
              "element": "F",
              "occu": 1
            }
          ],
          "abc": [
            0.91402142,
            0.021833810000000002,
            0.25
          ],
          "xyz": [
            3.980928664162645,
            0.1394783985394353,
            1.7140490225
          ],
          "properties": {
            "magmom": -0.0
          },
          "label": "F"
        },
        {
          "species": [
            {
              "element": "F",
              "occu": 1
            }
          ],
          "abc": [
            0.41402142000000003,
            0.47816619,
            0.75
          ],
          "xyz": [
            1.8032287891626453,
            3.0546136664605648,
            5.1421470675
          ],
          "properties": {
            "magmom": -0.0
          },
          "label": "F"
        },
        {
          "species": [
            {
              "element": "F",
              "occu": 1
            }
          ],
          "abc": [
            0.38135667,
            0.16554485,
            0.06293922
          ],
          "xyz": [
            1.6609607451788326,
            1.0575309835732305,
            0.43152363407164984
          ],
          "properties": {
            "magmom": 0.0
          },
          "label": "F"
        },
        {
          "species": [
            {
              "element": "F",
              "occu": 1
            }
          ],
          "abc": [
            0.8813566700000001,
            0.33445515000000003,
            0.93706078
          ],
          "xyz": [
            3.8386606201788327,
            2.1365610814267697,
            6.42467245592835
          ],
          "properties": {
            "magmom": 0.0
          },
          "label": "F"
        },
        {
          "species": [
            {
              "element": "F",
              "occu": 1
            }
          ],
          "abc": [
            0.11864333,
            0.66554485,
            0.43706078
          ],
          "xyz": [
            0.5167391298211675,
            4.25162304857323,
            2.9965744109283503
          ],
          "properties": {
            "magmom": 0.0
          },
          "label": "F"
        },
        {
          "species": [
            {
              "element": "F",
              "occu": 1
            }
          ],
          "abc": [
            0.61864333,
            0.83445515,
            0.56293922
          ],
          "xyz": [
            2.694439004821168,
            5.33065314642677,
            3.8596216790716498
          ],
          "properties": {
            "magmom": 0.0
          },
          "label": "F"
        }
      ]
    }
  }
]